<VTKFile type="UnstructuredGrid" version="0.1" byte_order="LittleEndian">
  <UnstructuredGrid>
    <Piece NumberOfPoints="3765" NumberOfCells="7310">
      <Points>
        <DataArray type = "Float32" NumberOfComponents="3" format="ascii">
          25.35  13  0
          25.5487  12.5841  0
          26  13  0
          5.8198  6.07223  0
          5.87049  6.11546  0
          5.81871  6.11474  0
          7.97188  0.371664  0
          8.36018  0.43887  0
          8.08853  0.718424  0
          0  3.9  0
          0.335564  4.17105  0
          0  4.55  0
          21.1831  0.949349  0
          20.7282  1.41578  0
          20.539  0.936132  0
          21.6403  0.478378  0
          22.2852  0.490394  0
          21.8243  0.967699  0
          20.3457  0.46576  0
          20.8  0  0
          20.9933  0.471085  0
          21.2282  12.5321  0
          20.8  13  0
          20.5848  12.5337  0
          19.0524  0.461251  0
          18.6144  0.921566  0
          18.4035  0.463482  0
          16.0597  12.5189  0
          15.6  13  0
          15.4064  12.5049  0
          8.95594  0.722655  0
          9.39579  0.737026  0
          9.10811  1.05853  0
          5.84227  6.13552  0
          7.65468  0.702934  0
          5.79389  6.09549  0
          5.76791  6.07784  0
          5.84501  5.94731  0
          5.77372  5.90838  0
          5.8551  5.87587  0
          5.98541  6.16637  0
          5.91518  6.16444  0
          5.94177  6.10957  0
          5.76393  6.03558  0
          5.5314  6.00099  0
          5.57469  5.97095  0
          5.56267  6.00394  0
          5.5  6  0
          5.4686  6.00099  0
          5.5078  5.96573  0
          26  0.65  0
          25.5841  0.430917  0
          26  0  0
          5.77478  5.8361  0
          5.69778  5.87863  0
          5.68975  5.80669  0
          5.43733  6.00394  0
          5.40631  6.00886  0
          5.44077  5.96895  0
          5.70236  5.94508  0
          5.64037  5.9845  0
          5.63137  5.92403  0
          5.05672  0.69543  0
          5.49016  0.707651  0
          5.20173  1.01952  0
          5.37566  6.01571  0
          5.34549  6.02447  0
          5.37467  5.98054  0
          4.20479  0.7015  0
          4.46772  0.427111  0
          4.6218  0.702297  0
          5.28711  6.04759  0
          5.31053  6.00033  0
          5.31594  6.03511  0
          5.3732  0.366173  0
          4.87876  0.365194  0
          5.25912  6.06185  0
          5.23209  6.07784  0
          5.24937  6.02801  0
          0.463489  0.862733  0
          0.493841  1.29013  0
          0  1.3  0
          0.429746  1.66465  0
          0.480657  2.0591  0
          0  1.95  0
          2.3157  0.372509  0
          1.92367  0.439985  0
          1.95  0  0
          2.52323  0.702945  0
          2.80165  0.369825  0
          2.94144  0.707859  0
          1.26991  3.32422  0
          0.997392  3.047  0
          1.32569  2.93798  0
          3.77817  0.693328  0
          3.92987  1.00799  0
          5.08367  6.08027  0
          5.03429  6.13578  0
          5.02123  6.05606  0
          5.13552  6.15773  0
          5.13982  6.10516  0
          5.15773  6.13552  0
          0.390663  4.53779  0
          5.09549  6.20611  0
          5.09315  6.15342  0
          5.11474  6.18129  0
          5.06185  6.25912  0
          5.0529  6.20715  0
          5.07784  6.23209  0
          0.341667  4.88128  0
          0.388577  5.216  0
          0  5.2  0
          5.04759  6.28711  0
          5.03511  6.31594  0
          5.01971  6.26551  0
          5.00394  6.43733  0
          4.97646  6.39233  0
          5.00886  6.40631  0
          5  6.5  0
          4.96709  6.45881  0
          5.00099  6.4686  0
          5.00099  6.5314  0
          5.00394  6.56267  0
          4.96613  6.52593  0
          0.338827  5.54141  0
          0  5.85  0
          0  6.5  0
          0.338057  6.19173  0
          5.04759  6.71289  0
          5.06185  6.74088  0
          5.01317  6.72065  0
          0  0  0
          0.65  0  0
          0.359656  0.399859  0
          0  7.15  0
          0.342046  6.84175  0
          5.07784  6.76791  0
          5.09549  6.79389  0
          5.04467  6.77993  0
          0.637682  7.02153  0
          0.396901  7.17248  0
          5.11474  6.81871  0
          5.13552  6.84227  0
          5.08335  6.83478  0
          5.15773  6.86448  0
          5.1286  6.88435  0
          0.418738  7.84787  0
          0.373959  8.19201  0
          0  7.8  0
          0  12.35  0
          0  11.7  0
          0.390579  11.9309  0
          0.359643  9.41616  0
          0.422482  9.81761  0
          0  9.75  0
          5.23209  6.92216  0
          5.1797  6.92785  0
          5.20611  6.90451  0
          2.28533  12.6002  0
          1.95  13  0
          1.78817  12.564  0
          5.00975  6.83053  0
          4.97217  6.76649  0
          3.57458  12.63  0
          3.98801  12.568  0
          3.9  13  0
          0.363385  10.1995  0
          5.28711  6.95241  0
          5.23585  6.96461  0
          5.25912  6.93815  0
          5.34549  6.97553  0
          5.29616  6.99403  0
          5.31594  6.96489  0
          5.16587  6.9877  0
          5.10737  6.94202  0
          5.40631  6.99114  0
          5.35968  7.01567  0
          5.37566  6.98429  0
          4.87396  12.6316  0
          5.2885  12.5701  0
          5.2  13  0
          5.43733  6.99606  0
          5.4686  6.99901  0
          5.42541  7.02917  0
          5.5  7  0
          5.5314  6.99901  0
          5.49231  7.03433  0
          5.65451  6.97553  0
          5.62539  7.01942  0
          5.62434  6.98429  0
          5.68406  6.96489  0
          5.71289  6.95241  0
          5.68948  6.9996  0
          5.55932  7.03106  0
          5.59369  6.99114  0
          5.75058  6.9719  0
          5.76791  6.92216  0
          5.80773  6.93677  0
          5.81871  6.88526  0
          5.86006  6.89477  0
          9.56518  12.6046  0
          9.87558  12.238  0
          10.0707  12.5969  0
          5.99901  6.5314  0
          6.02764  6.49508  0
          6.04932  6.54659  0
          0  13  0
          0.398205  12.6348  0
          5.96489  6.31594  0
          5.95241  6.28711  0
          5.98414  6.2753  0
          6.03041  6.44111  0
          5.99901  6.4686  0
          6.02801  6.38617  0
          5.99114  6.40631  0
          6.08228  6.41167  0
          6.06935  6.34988  0
          6.0188  6.10981  0
          5.96865  6.04924  0
          6.05331  6.04783  0
          5.90451  6.20611  0
          5.9532  6.21816  0
          5.92216  6.23209  0
          5.88526  6.18129  0
          5.86448  6.15773  0
          10.4  0  0
          11.05  0  0
          10.5853  0.391461  0
          13  0  0
          12.5638  0.419072  0
          12.35  0  0
          5.99606  6.43733  0
          13.1909  12.1612  0
          13.4715  11.7675  0
          13.7048  12.1105  0
          14.52  0.439448  0
          13.8907  0.443214  0
          14.3  0  0
          16.5729  2.14676  0
          16.2068  2.49807  0
          16.0617  2.11012  0
          17.1057  0.458563  0
          16.4615  0.456281  0
          16.9  0  0
          19.4557  1.37489  0
          19.8961  0.925164  0
          20.088  1.39371  0
          26  5.2  0
          25.5238  4.77781  0
          26  4.55  0
          26  2.6  0
          25.5397  2.24774  0
          26  1.95  0
          5.98429  6.37566  0
          5.97553  6.34549  0
          6.00821  6.33363  0
          10.2701  0.738688  0
          10.7182  0.756223  0
          10.4256  1.07997  0
          6  6.5  0
          10.4  13  0
          9.75  13  0
          5.99606  6.56267  0
          9.1  13  0
          6.02863  6.60981  0
          5.99114  6.59369  0
          5.98429  6.62434  0
          6.00818  6.67315  0
          5.97553  6.65451  0
          9.69804  11.9  0
          9.42766  12.2459  0
          9.25929  11.9259  0
          9.1699  12.5459  0
          5.95241  6.71289  0
          5.96489  6.68406  0
          5.98135  6.73475  0
          5.92216  6.76791  0
          5.93815  6.74088  0
          5.94743  6.79293  0
          9.00097  12.2607  0
          8.82996  11.9474  0
          5.88526  6.81871  0
          5.90451  6.79389  0
          5.90683  6.84657  0
          5.84227  6.86448  0
          5.86448  6.84227  0
          6.97059  12.632  0
          7.28037  12.2995  0
          7.46425  12.6302  0
          5.79389  6.90451  0
          6.84875  12.292  0
          7.1305  11.9783  0
          5.74088  6.93815  0
          5.67611  12.6337  0
          5.9909  12.3031  0
          6.17091  12.6336  0
          6.58325  12.5703  0
          6.42786  12.293  0
          5.55779  12.2936  0
          5.84131  11.9822  0
          5.56267  6.99606  0
          4.3769  12.6309  0
          4.69414  12.2964  0
          5.13534  12.2902  0
          3.68002  11.9795  0
          3.25924  11.9671  0
          3.5378  11.667  0
          2.6  13  0
          3.08107  12.6254  0
          3.25  13  0
          5.05505  6.88935  0
          0  8.45  0
          0.360291  8.93316  0
          0  9.1  0
          0.691374  10.4771  0
          0.366761  10.6842  0
          0  10.4  0
          0  11.05  0
          0.377102  11.4562  0
          4.69037  6.82334  0
          4.65616  6.71927  0
          4.75281  6.76384  0
          5.18129  6.88526  0
          4.91111  6.55344  0
          4.97359  6.59265  0
          4.92246  6.62684  0
          0.387571  6.51915  0
          0.626498  6.37143  0
          5.03511  6.68406  0
          4.98935  6.6579  0
          5.02447  6.65451  0
          5.00886  6.59369  0
          5.01571  6.62434  0
          0.386139  5.86993  0
          0.625422  6.04783  0
          0.885713  5.90797  0
          0.888144  5.58354  0
          1.14235  5.775  0
          0.638258  4.36442  0
[...]
      <CellData>
        <DataArray type="Float32" Name="Cell_ID" format="ascii">
          1
          2
          3
          4
          5
          6
          7
          8
          9
          10
          11
          12
          13
          14
          15
          16
          17
          18
          19
          20
          21
          22
          23
          24
          25
          26
          27
          28
          29
          30
          31
          32
          33
          34
          35
          36
          37
          38
          39
          40
          41
          42
          43
          44
          45
          46
          47
          48
          49
          50
          51
          52
          53
          54
          55
          56
          57
          58
          59
          60
          61
          62
          63
          64
          65
          66
          67
          68
          69
          70
          71
          72
          73
          74
          75
          76
          77
          78
          79
          80
          81
          82
          83
          84
          85
          86
          87
          88
          89
          90
          91
          92
          93
          94
          95
          96
          97
          98
          99
          100
          101
          102
          103
          104
          105
          106
          107
          108
          109
          110
          111
          112
          113
          114
          115
          116
          117
          118
          119
          120
          121
          122
          123
          124
          125
          126
          127
          128
          129
          130
          131
          132
          133
          134
          135
          136
          137
          138
          139
          140
          141
          142
          143
          144
          145
          146
          147
          148
          149
          150
          151
          152
          153
          154
          155
          156
          157
          158
          159
          160
          161
          162
          163
          164
          165
          166
          167
          168
          169
          170
          171
          172
          173
          174
          175
          176
          177
          178
          179
          180
          181
          182
          183
          184
          185
          186
          187
          188
          189
          190
          191
          192
          193
          194
          195
          196
          197
          198
          199
          200
          201
          202
          203
          204
          205
          206
          207
          208
          209
          210
          211
          212
          213
          214
          215
          216
          217
          218
          219
          220
          221
          222
          223
          224
          225
          226
          227
          228
          229
          230
          231
          232
          233
          234
          235
          236
          237
          238
          239
          240
          241
          242
          243
          244
          245
          246
          247
          248
          249
          250
          251
          252
          253
          254
          255
          256
          257
          258
          259
          260
          261
          262
          263
          264
          265
          266
          267
          268
          269
          270
          271
          272
          273
          274
          275
          276
          277
          278
          279
          280
          281
          282
          283
          284
          285
          286
          287
          288
          289
          290
          291
          292
          293
          294
          295
          296
          297
          298
          299
          300
          301
          302
          303
          304
          305
          306
          307
          308
          309
          310
          311
          312
          313
          314
          315
          316
          317
          318
          319
          320
          321
          322
          323
          324
          325
          326
          327
          328
          329
          330
          331
          332
          333
          334
          335
          336
          337
          338
          339
          340
          341
          342
          343
          344
          345
          346
          347
          348
          349
          350
          351
          352
          353
          354
          355
          356
          357
          358
          359
          360
          361
          362
          363
          364
          365
          366
          367
          368
          369
          370
          371
          372
          373
          374
          375
          376
          377
          378
          379
          380
          381
          382
          383
          384
          385
          386
          387
          388
          389
          390
          391
          392
          393
          394
          395
          396
          397
          398
          399
          400
          401
          402
          403
          404
          405
          406
          407
          408
          409
          410
          411
          412
          413
          414
          415
          416
          417
          418
          419
          420
          421
          422
          423
          424
          425
          426
          427
          428
          429
          430
          431
          432
          433
          434
          435
          436
          437
          438
          439
          440
          441
          442
          443
          444
          445
          446
          447
          448
          449
          450
          451
          452
          453
          454
          455
          456
          457
          458
          459
          460
          461
          462
          463
          464
          465
          466
          467
          468
          469
          470
          471
          472
          473
          474
          475
          476
          477
          478
          479
          480
          481
          482
          483
          484
          485
          486
          487
          488
          489
          490
          491
          492
          493
          494
          495
          496
          497
          498
          499
          500
          501
          502
          503
          504
          505
          506
          507
          508
          509
          510
          511
          512
          513
          514
          515
          516
          517
          518
          519
          520
          521
          522
          523
          524
          525
          526
          527
          528
          529
          530
          531
          532
          533
          534
          535
          536
          537
          538
          539
          540
          541
          542
          543
          544
          545
          546
          547
          548
          549
          550
          551
          552
          553
          554
          555
          556
          557
          558
          559
          560
          561
          562
          563
          564
          565
          566
          567
          568
          569
          570
          571
          572
          573
          574
          575
          576
          577
          578
          579
          580
          581
          582
          583
          584
          585
          586
          587
          588
          589
          590
          591
          592
          593
          594
          595
          596
          597
          598
          599
          600
          601
          602
          603
          604
          605
          606
          607
          608
          609
          610
          611
          612
          613
          614
          615
          616
          617
          618
          619
          620
          621
          622
          623
          624
          625
          626
          627
          628
          629
          630
          631
          632
          633
          634
          635
          636
          637
          638
          639
          640
          641
          642
          643
          644
          645
          646
          647
          648
          649
          650
          651
          652
          653
          654
          655
          656
          657
          658
          659
          660
          661
          662
          663
          664
          665
          666
          667
          668
          669
          670
          671
          672
          673
          674
          675
          676
          677
          678
          679
          680
          681
          682
          683
          684
          685
          686
          687
          688
          689
          690
          691
          692
          693
          694
          695
          696
          697
          698
          699
          700
          701
          702
          703
          704
          705
          706
          707
          708
          709
          710
          711
          712
          713
          714
          715
          716
          717
          718
          719
          720
          721
          722
          723
          724
          725
          726
          727
          728
          729
          730
          731
          732
          733
          734
          735
          736
          737
          738
          739
          740
          741
          742
          743
          744
          745
          746
          747
          748
          749
          750
          751
          752
          753
          754
          755
          756
          757
          758
          759
          760
          761
          762
          763
          764
          765
          766
          767
          768
          769
          770
          771
          772
          773
          774
          775
          776
          777
          778
          779
          780
          781
          782
          783
          784
          785
          786
          787
          788
          789
          790
          791
          792
          793
          794
          795
          796
          797
          798
          799
          800
          801
          802
          803
          804
          805
          806
          807
          808
          809
          810
          811
          812
          813
          814
          815
          816
          817
          818
          819
          820
          821
          822
          823
          824
          825
          826
          827
          828
          829
          830
          831
          832
          833
          834
          835
          836
          837
          838
          839
          840
          841
          842
          843
          844
          845
          846
          847
          848
          849
          850
          851
          852
          853
          854
          855
          856
          857
          858
          859
          860
          861
          862
          863
          864
          865
          866
          867
          868
          869
          870
          871
          872
          873
          874
          875
          876
          877
          878
          879
          880
          881
          882
          883
          884
          885
          886
          887
          888
          889
          890
          891
          892
          893
          894
          895
          896
          897
          898
          899
          900
          901
          902
          903
          904
          905
          906
          907
          908
          909
          910
          911
          912
          913
          914
          915
          916
          917
          918
          919
          920
          921
          922
          923
          924
          925
          926
          927
          928
          929
          930
          931
          932
          933
          934
          935
          936
          937
          938
          939
          940
          941
          942
          943
          944
          945
          946
          947
          948
          949
          950
          951
          952
          953
          954
          955
          956
          957
          958
          959
          960
          961
          962
          963
          964
          965
          966
          967
          968
          969
          970
          971
          972
          973
          974
          975
          976
          977
          978
          979
          980
          981
          982
          983
          984
          985
          986
          987
          988
          989
          990
          991
          992
          993
          994
          995
          996
          997
          998
          999
          1000
          1001
          1002
          1003
          1004
          1005
          1006
          1007
          1008
          1009
          1010
          1011
          1012
          1013
          1014
          1015
          1016
          1017
          1018
          1019
          1020
          1021
          1022
          1023
          1024
          1025
          1026
          1027
          1028
          1029
          1030
          1031
          1032
          1033
          1034
          1035
          1036
          1037
          1038
          1039
          1040
          1041
          1042
          1043
          1044
          1045
          1046
          1047
          1048
          1049
          1050
          1051
          1052
          1053
          1054
          1055
          1056
          1057
          1058
          1059
          1060
          1061
          1062
          1063
          1064
          1065
          1066
          1067
          1068
          1069
          1070
          1071
          1072
          1073
          1074
          1075
          1076
          1077
          1078
          1079
          1080
          1081
          1082
          1083
          1084
          1085
          1086
          1087
          1088
          1089
          1090
          1091
          1092
          1093
          1094
          1095
          1096
          1097
          1098
          1099
          1100
          1101
          1102
          1103
          1104
          1105
          1106
          1107
          1108
          1109
          1110
          1111
          1112
          1113
          1114
          1115
          1116
          1117
          1118
          1119
          1120
          1121
          1122
          1123
          1124
          1125
          1126
          1127
          1128
          1129
          1130
          1131
          1132
          1133
          1134
          1135
          1136
          1137
          1138
          1139
          1140
          1141
          1142
          1143
          1144
          1145
          1146
          1147
          1148
          1149
          1150
          1151
          1152
          1153
          1154
          1155
          1156
          1157
          1158
          1159
          1160
          1161
          1162
          1163
          1164
          1165
          1166
          1167
          1168
          1169
          1170
          1171
          1172
          1173
          1174
          1175
          1176
          1177
          1178
          1179
          1180
          1181
          1182
          1183
          1184
          1185
          1186
          1187
          1188
          1189
          1190
          1191
          1192
          1193
          1194
          1195
          1196
          1197
          1198
          1199
          1200
          1201
          1202
          1203
          1204
          1205
          1206
          1207
          1208
          1209
          1210
          1211
          1212
          1213
          1214
          1215
          1216
          1217
          1218
          1219
          1220
          1221
          1222
          1223
          1224
          1225
          1226
          1227
          1228
          1229
          1230
          1231
          1232
          1233
          1234
          1235
          1236
          1237
          1238
          1239
          1240
          1241
          1242
          1243
          1244
          1245
          1246
          1247
          1248
          1249
          1250
          1251
          1252
          1253
          1254
          1255
          1256
          1257
          1258
          1259
          1260
          1261
          1262
          1263
          1264
          1265
          1266
          1267
          1268
          1269
          1270
          1271
          1272
          1273
          1274
          1275
          1276
          1277
          1278
          1279
          1280
          1281
          1282
          1283
          1284
          1285
          1286
          1287
          1288
          1289
          1290
          1291
          1292
          1293
          1294
          1295
          1296
          1297
          1298
          1299
          1300
          1301
          1302
          1303
          1304
          1305
          1306
          1307
          1308
          1309
          1310
          1311
          1312
          1313
          1314
          1315
          1316
          1317
          1318
          1319
          1320
          1321
          1322
          1323
          1324
          1325
          1326
          1327
          1328
          1329
          1330
          1331
          1332
          1333
          1334
          1335
          1336
          1337
          1338
          1339
          1340
          1341
          1342
          1343
          1344
          1345
          1346
          1347
          1348
          1349
          1350
          1351
          1352
          1353
          1354
          1355
          1356
          1357
          1358
          1359
          1360
          1361
          1362
          1363
          1364
          1365
          1366
          1367
          1368
          1369
          1370
          1371
          1372
          1373
          1374
          1375
          1376
          1377
          1378
          1379
          1380
          1381
          1382
          1383
          1384
          1385
          1386
          1387
          1388
          1389
          1390
          1391
          1392
          1393
          1394
          1395
          1396
          1397
          1398
          1399
          1400
          1401